# vtk DataFile Version 5.1
vtk output
ASCII
DATASET STRUCTURED_POINTS
DIMENSIONS 20 20 1
SPACING 0.1 0.1 0.1
ORIGIN -0.5 -0.5 0
POINT_DATA 400
SCALARS my_value float
LOOKUP_TABLE default
0 0 0 0 0 0 0 0 0 0 0 0 0 0 0 0 0 0 0 0 
0 0 0 0 0 0 0 0 0 0 0 0 0 0 0 0 0 0 0 0 
0 0 0 0 0 0 0 0 0 0 0 0 0 0 0 0 0 0 0 0 
0 0 0 0 0 0.112222 0.313997 0.19338 0 0.043247 0.215239 0.330784 0.126525 0 0 0 0 0 0 0 
0 0 0 0 0.412768 1.009072 1.009438 1.011033 1.182259 1.004627 1.011026 1.00867 1.000737 0.450365 0 0 0 0 0 0 
0 0 0 0.300546 1.007778 1.017195 1.025869 1.017204 1.020637 1.023955 1.002966 1.020864 1.003306 1.00452 0.417112 0 0 0 0 0 
0 0 0 1.25651 1.019857 1.015189 1.038905 1.019935 1.03777 1.016916 1.0219 1.027194 1.00608 1.00986 1.002162 0.093271 0 0 0 0 
0 0 0.190511 1.000802 1.02161 1.00476 1.056947 1.006279 1.045218 1.016028 1.02637 1.028472 1.008001 1.012517 1.001955 0.251418 0 0 0 0 
0 0 0 1.25658 1.016609 1.027358 1.005388 1.044933 1.038167 1.004745 1.025638 1.024478 1.008414 1.011957 1.000552 0.093398 0 0 0 0 
0 0 0 0.299535 1.009316 1.02603 1.016189 1.034784 1.003404 1.028838 1.012806 1.016422 1.009083 1.004159 0.416382 0 0 0 0 0 
0 0 0 0 0.411465 1.006143 1.015217 1.011539 1.181022 1.009225 1.011656 1.006623 1.004712 0.44771 0 0 0 0 0 0 
0 0 0 0 0 0.111929 0.312472 0.191557 0 0.041302 0.213516 0.330241 0.124725 0 0 0 0 0 0 0 
0 0 0 0 0 0 0 0 0 0 0 0 0 0 0 0 0 0 0 0 
0 0 0 0 0 0 0 0 0 0 0 0 0 0 0 0 0 0 0 0 
0 0 0 0 0 0 0 0 0 0 0 0 0 0 0 0 0 0 0 0 
0 0 0 0 0 0 0 0 0 0 0 0 0 0 0 0 0 0 0 0 
0 0 0 0 0 0 0 0 0 0 0 0 0 0 0 0 0 0 0 0 
0 0 0 0 0 0 0 0 0 0 0 0 0 0 0 0 0 0 0 0 
0 0 0 0 0 0 0 0 0 0 0 0 0 0 0 0 0 0 0 0 
0 0 0 0 0 0 0 0 0 0 0 0 0 0 0 0 0 0 0 0 
