# vtk DataFile Version 5.1
vtk output
ASCII
DATASET STRUCTURED_POINTS
DIMENSIONS 20 20 1
SPACING 0.1 0.1 0.1
ORIGIN -0.5 -0.5 0
POINT_DATA 400
SCALARS my_value float
LOOKUP_TABLE default
0 0.825174 2.370394 4.640639 7.670276 11.258701 14.687987 16.377557 15.107838 11.826502 8.216703 5.141652 2.837871 1.245298 0.299149 0 0 0 0 0 
0.825174 1.008159 1.018966 1.022609 1.005217 1.04585 1.050974 1.038822 1.037013 1.036198 1.04346 1.036723 1.004009 1.015865 1.010092 0.357887 0 0 0 0 
1.938463 1.02471 1.023039 1.052929 1.021818 1.102679 1.053631 1.089415 1.054683 1.083485 1.04673 1.084166 1.016784 1.038402 1.019399 1.007563 0.058738 0 0 0 
2.918657 1.032453 1.028609 1.078894 1.036756 1.134693 1.065915 1.131887 1.067494 1.123196 1.05766 1.110432 1.028309 1.057882 1.019814 1.021932 0.281125 0 0 0 
3.460009 1.037491 1.031865 1.098317 1.048596 1.155808 1.02129 1.217106 1.021827 1.152098 1.06377 1.127376 1.037375 1.072172 1.021905 1.025393 0.440658 0 0 0 
3.417762 1.03954 1.032652 1.109963 1.056542 1.166635 1.125774 1.024141 1.179443 1.166616 1.020054 1.134478 1.043254 1.080075 1.0218 1.026021 0.444768 0 0 0 
2.890309 1.038532 1.031002 1.113256 1.060233 1.165032 1.076823 1.188851 1.182676 1.022663 1.116656 1.133082 1.045658 1.081126 1.019343 1.023169 0.301465 0 0 0 
2.093739 1.034494 1.027051 1.108444 1.059603 1.15311 1.076236 1.183525 1.069197 1.168506 1.065585 1.122085 1.044617 1.075242 1.014604 1.014969 0.096541 0 0 0 
1.241584 1.027233 1.02092 1.096365 1.055066 1.132748 1.071025 1.16664 1.058715 1.153612 1.060688 1.104034 1.040379 1.063135 1.009354 0.604669 0 0 0 0 
0.499718 1.015523 1.012679 1.078179 1.047328 1.106471 1.061977 1.141466 1.046054 1.130029 1.052524 1.080733 1.033569 1.047675 1.002389 0.078143 0 0 0 0 
0 1.092726 1.00306 1.055264 1.037303 1.076971 1.050242 1.110906 1.032203 1.10101 1.041882 1.053933 1.03131 1.015314 0.228391 0 0 0 0 0 
0 0 0.983157 1.017454 1.032947 1.046846 1.036985 1.077597 1.018057 1.054678 1.05349 1.024675 1.015198 0.224616 0 0 0 0 0 0 
0 0 0 0.451862 1.01487 1.018218 1.033231 1.034176 1.004216 1.031126 1.01111 0.608242 0.074368 0 0 0 0 0 0 0 
0 0 0 0 0.061714 0.285968 0.486435 0.574151 0.523079 0.330252 0.105048 0 0 0 0 0 0 0 0 0 
0 0 0 0 0 0 0 0 0 0 0 0 0 0 0 0 0 0 0 0 
0 0 0 0 0 0 0 0 0 0 0 0 0 0 0 0 0 0 0 0 
0 0 0 0 0 0 0 0 0 0 0 0 0 0 0 0 0 0 0 0 
0 0 0 0 0 0 0 0 0 0 0 0 0 0 0 0 0 0 0 0 
0 0 0 0 0 0 0 0 0 0 0 0 0 0 0 0 0 0 0 0 
0 0 0 0 0 0 0 0 0 0 0 0 0 0 0 0 0 0 0 0 
